Title

1418 atoms
1180 bonds
1836 angles
588 dihedrals
108 impropers

9 atom types
8 bond types
5 angle types
12 dihedral types
1 improper types
-0.02899999917 29.971 xlo xhi
-0.02199999988 29.978 ylo yhi
0 30 zlo zhi
0.0 0.0 0.0 xy xz yz

Masses

1	12.01078
2	1.007947
3	1.007947
4	14.00672
5	12.01078
6	1.007947
7	1.007947
8	35.4532
9	1.007947


Pair Coeffs

1	0.086879315	3.4806469
2	0.015611343	2.5725815
3	0.013106998	2.4536265
4	0.16769152	3.206876
5	0.10884061	3.3795318
6	0.016409246	2.5832257
7	0.015779483	2.6445434
8	0.2656001	3.3075278
9	0.0157	2.2931733

Bond Coeffs

1 harmonic	382.57328358035	1.394445702699
2 harmonic	387.6926691923	1.081823673944
3 harmonic	270.1672976749	1.466199291912
4 harmonic	511.6430148455	1.306529281865
5 harmonic	228.55147240575	1.46420197713
6 harmonic	209.99346340955	1.527940216866
7 harmonic	359.82124644905	1.090139506109
8 harmonic	121.99992364875	1.785584712269


Angle Coeffs

1 harmonic	73.52072066505001	119.8314000445
2 harmonic	30.881385106405	119.6660147945
3 harmonic	136.2143272331	118.7711698022
4 harmonic	60.59416350775	110.0631999136
5 harmonic	37.541272178735	108.5839257083


Dihedral Coeffs

1 fourier 1	3.262660352984	2	180
2 fourier 1	1.05588634537	2	180
3 fourier 1	8.052532732388	2	180
4 fourier 1	1.066466844349	1	0
5 fourier 1	1.647905511831	1	0
6 fourier 1	0.1526959283148	3	0
7 fourier 1	-3.525605054758	1	0
8 fourier 1	0.42948937236	3	0
9 fourier 1	0.2543919562345	2	180
10 fourier 1	0.8736160241398	1	180
11 fourier 1	0.08586880062944	3	0
12 fourier 1	0.2516073078789	3	0


Improper Coeffs

1 1.743596855104667	-1	2


Atoms

1	1	1	-0.26792467	15.578214	13.698966	20.259083
2	1	1	-0.17913375	14.383448	14.385598	20.259088
3	1	1	-0.26792464	14.348894	15.764041	20.259103
4	1	1	-0.17913375	15.538518	16.49209	20.259116
5	1	1	-0.26792467	16.715159	15.763928	20.259113
6	1	1	-0.17913389	16.777235	14.388832	20.259094
7	1	1	0.38038483	18.064156	13.687619	20.259094
8	1	1	0.38038477	15.533952	17.940652	20.259094
9	1	1	0.38038477	13.111212	13.684959	20.259094
10	1	2	0.22919582	15.621787	12.619202	20.259074
11	1	2	0.22919582	13.433002	16.32753	20.259107
12	1	2	0.22919582	17.643551	16.359944	20.259123
13	1	3	0.063648795	18.145295	12.621346	20.259148
14	1	3	0.06364878	14.601196	18.457604	20.259019
15	1	3	0.06364878	13.126783	12.608846	20.259118
16	1	1	-0.26792476	9.5680178	13.760602	13.865756
17	1	1	-0.17913375	9.9644407	12.613046	14.517595
18	1	1	-0.2679247	10.760272	11.674127	13.895999
19	1	1	-0.17913363	11.180602	11.875585	12.581466
20	1	1	-0.26792473	10.760199	13.040361	11.964002
21	1	1	-0.17913369	9.9663028	13.992941	12.561549
22	1	1	0.38038471	9.5614575	15.20342	11.841339
23	1	1	0.38038474	12.016947	10.907251	11.902342
24	1	1	0.38038489	9.5599218	12.34561	15.886654
25	1	2	0.22919588	8.944623	14.505605	14.339188
26	1	2	0.22919582	11.0856	10.769676	14.378189
27	1	2	0.22919585	11.104301	13.179021	10.925005
28	1	3	0.063648758	8.9458003	15.96109	12.277717
29	1	3	0.063648758	12.315471	10.024125	12.420266
30	1	3	0.063648788	8.938608	13.071998	16.381217
31	1	1	-0.26792479	19.391501	11.541228	14.48214
32	1	1	-0.17913363	20.187102	12.458318	15.13398
33	1	1	-0.26792479	20.602314	13.616988	14.512383
34	1	1	-0.17913372	20.217682	13.880275	13.19785
35	1	1	-0.26792479	19.419157	12.933808	12.580387
36	1	1	-0.17913358	18.991147	11.769983	13.177934
37	1	1	0.38038489	18.145264	10.814137	12.457723
38	1	1	0.38038489	20.63811	15.088738	12.518727
39	1	1	0.38038486	20.620968	12.241712	16.503038
40	1	2	0.22919585	19.058006	10.62885	14.955572
41	1	2	0.22919582	21.222928	14.350955	14.994574
42	1	2	0.22919585	19.127024	13.162478	11.541389
43	1	3	0.063648765	17.796931	9.9021276	12.894101
44	1	3	0.06364875	21.253658	15.78883	13.03665
45	1	3	0.063648765	20.302554	11.340445	16.997601
46	1	1	-0.26792467	16.120933	20.210615	13.673168
47	1	1	-0.17913375	14.928908	20.44108	14.325008
48	1	1	-0.2679247	13.717865	20.221329	13.703412
49	1	1	-0.17913381	13.682168	19.756584	12.388878
50	1	1	-0.26792464	14.901095	19.538275	11.771415
51	1	1	-0.17913379	16.123001	19.74952	12.368962
52	1	1	0.38038489	17.37373	19.494887	11.648751
53	1	1	0.38038498	12.425394	19.516455	11.709755
54	1	1	0.38038489	14.899562	20.925122	15.694066
55	1	2	0.22919585	17.077822	20.377988	14.1466
56	1	2	0.22919583	12.771924	20.391813	14.185602
57	1	2	0.22919583	14.849127	19.170945	10.732417
58	1	3	0.063648788	18.33772	19.649227	12.085129
59	1	3	0.063648765	11.511323	19.699489	12.227679
60	1	3	0.06364875	15.839289	21.100001	16.18863
61	1	4	-0.57886172	11.625577	13.12306	19.796222
62	1	5	0.12927408	10.220219	12.715835	19.71991
63	1	5	-0.13749114	9.7825252	12.260519	21.083625
64	1	5	-0.13954428	8.492756	11.493963	21.065176
65	1	5	-0.13954431	7.9076989	11.568421	19.655208
66	1	5	-0.13749118	8.9005764	10.79748	18.775498
67	1	5	0.12927405	10.130995	11.649957	18.67084
68	1	4	-0.57886172	10.126869	12.25778	17.348841
69	1	6	0.086360467	9.6625526	13.641905	19.460162
70	1	7	0.10362878	10.583914	11.655138	21.569345
71	1	7	0.10362878	9.6184885	13.161745	21.717039
72	1	7	0.10341701	8.6734189	10.401248	21.244077
73	1	7	0.10341705	7.745443	11.862983	21.797428
74	1	7	0.10341704	6.9043889	11.152174	19.588497
75	1	7	0.10341704	7.8887832	12.635976	19.389277
76	1	7	0.10362879	9.1230028	9.8466931	19.327744
77	1	7	0.10362879	8.4497928	10.520166	17.824311
78	1	6	0.086360467	11.010633	10.983013	18.705139
79	1	4	-0.57886172	19.627503	12.588033	20.386315
80	1	5	0.12927405	20.683758	11.575499	20.31023
81	1	5	-0.13749117	21.297503	11.425437	21.673831
82	1	5	-0.13954434	22.606914	10.692938	21.655369
83	1	5	-0.13954425	22.835002	10.148449	20.245634
84	1	5	-0.13749115	23.004784	11.393438	19.365166
85	1	5	0.12927407	21.650685	12.031466	19.260588
86	1	4	-0.5788616	21.126212	11.722753	17.938934
87	1	6	0.086360452	20.161378	10.628882	20.051187
88	1	7	0.10362875	21.420323	12.422538	22.158948
89	1	7	0.10362875	20.599789	10.832479	22.307807
90	1	7	0.10341702	23.462312	11.396644	21.833594
91	1	7	0.10341702	22.661995	9.8616998	22.388073
92	1	7	0.10341701	23.697725	9.4884382	20.179015
93	1	7	0.10341701	21.920351	9.5972977	19.980311
94	1	7	0.10362876	23.71654	12.062425	19.916802
95	1	7	0.10362876	23.470259	11.141597	18.413969
96	1	6	0.086360482	21.787458	13.126872	19.294224
97	1	4	-0.57886172	15.151089	19.877355	19.593623
98	1	5	0.12927407	15.498866	21.298614	19.517714
99	1	5	-0.13749114	15.320829	21.905037	20.881226
100	1	5	-0.13954428	15.299425	23.405255	20.862753
101	1	5	-0.1395443	15.657298	23.875285	19.453198
102	1	5	-0.1374912	14.495	23.398996	18.572143
103	1	5	0.12927407	14.620618	21.907386	18.467629
104	1	4	-0.57886166	15.151089	21.607914	17.146242
105	1	6	0.086360459	16.579965	21.320299	19.259216
106	1	7	0.10362878	14.39594	21.512192	21.365876
107	1	7	0.10362878	16.183103	21.597894	21.515636
108	1	7	0.10341701	14.261932	23.793458	21.040455
109	1	7	0.10341705	15.991057	23.869069	21.595806
110	1	7	0.10341704	15.796788	24.95253	19.386649
111	1	7	0.10341704	16.592437	23.359417	19.188348
112	1	7	0.10362878	13.559282	23.680233	19.123308
113	1	7	0.10362878	14.480465	23.928019	17.620939
114	1	6	0.086360474	13.603871	21.477407	18.500752
115	1	4	-0.5788616	13.61277	10.159588	11.62277
116	1	5	0.12927404	14.495313	9.4497056	10.693323
117	1	5	-0.13749117	13.732129	8.3005426	10.097014
118	1	5	-0.13954434	14.613364	7.2975216	9.412304
119	1	5	-0.13954425	16.035632	7.8553063	9.36901
120	1	5	-0.13749115	16.480025	7.9154523	10.836301
121	1	5	0.12927407	15.70418	9.0309333	11.472986
122	1	4	-0.57886166	16.610187	10.159588	11.62277
123	1	6	0.086360474	14.718896	10.182191	9.8873801
124	1	7	0.10362875	13.109605	7.7991069	10.875255
125	1	7	0.10362875	13.036806	8.7049459	9.3267464
126	1	7	0.10341702	14.6924	6.3552697	10.016113
127	1	7	0.10341702	14.282612	7.0432247	8.3843048
128	1	7	0.10341701	16.711916	7.2497276	8.7687961
129	1	7	0.10341701	15.954045	8.8644612	8.9380793
130	1	7	0.10362876	16.192373	6.9273966	11.282896
131	1	7	0.10362876	17.562111	8.0026905	10.915951
132	1	6	0.086360482	15.428886	8.7137973	12.494451
133	1	4	-0.57886178	9.3166023	16.668471	10.897004
134	1	5	0.12927404	8.7935174	17.989548	10.539477
135	1	5	-0.13749114	7.5919728	17.802011	9.6564535
136	1	5	-0.13954428	7.1828977	19.055753	8.9407418
137	1	5	-0.1395443	8.0205161	20.214447	9.4808039
138	1	5	-0.13749121	9.4574593	19.897969	9.0459679
139	1	5	0.12927408	9.9126651	18.739286	9.8837298
140	1	4	-0.57886166	10.815311	19.264311	10.897004
141	1	6	0.086360482	8.4601579	18.440184	11.499615
142	1	7	0.10362878	7.770284	16.980234	8.9232955
143	1	7	0.10362878	6.733095	17.494995	10.295514
144	1	7	0.10341701	7.441774	18.997553	7.8506655
145	1	7	0.10341705	6.1049113	19.296209	9.0454913
146	1	7	0.10341704	7.6932116	21.184323	9.1112686
147	1	7	0.10341704	7.9208401	20.177787	10.576008
148	1	7	0.10362878	9.3914186	19.603946	7.965397
149	1	7	0.10362878	10.088804	20.782947	9.1014852
150	1	6	0.086360452	10.516525	18.072766	9.2427496
151	1	4	-0.5788616	20.658111	16.38666	11.328894
152	1	5	0.1292741	20.831615	17.505907	10.399447
153	1	5	-0.13749118	22.208412	17.419551	9.8031382
154	1	5	-0.13954436	22.636436	18.684233	9.1184278
155	1	5	-0.13954425	21.442246	19.637061	9.0751338
156	1	5	-0.13749115	21.167962	19.991844	10.542425
157	1	5	0.12927404	20.58985	18.762202	11.17911
158	1	4	-0.5788616	19.159402	18.9825	11.328894
159	1	6	0.086360467	20.085473	17.333292	9.5935039
160	1	7	0.10362877	22.95393	17.131147	10.581379
161	1	7	0.10362877	22.20585	16.615182	9.0328702
162	1	7	0.10341702	23.412932	19.223806	9.7222367
163	1	7	0.10341702	23.02204	18.524942	8.0904286
164	1	7	0.10341701	21.628551	20.52553	8.4749199
165	1	7	0.10341701	20.609086	19.061827	8.6442032
166	1	7	0.10362876	22.167469	20.236758	10.98902
167	1	7	0.10362876	20.551368	20.885339	10.622075
168	1	6	0.086360467	21.002144	18.682358	12.200575
169	2	5	0.1222	6.8300004	22.211	6.1950006
170	2	8	-0.1506	8.1890001	21.237	5.6059999
171	2	8	-0.1506	7.3220005	23.903	6.3950005
172	2	9	0.0895	5.9640002	22.195	5.4870005
173	2	9	0.0895	6.5120001	21.823002	7.1929998
174	3	5	0.1222	19.379	2.9159999	21.124001
175	3	8	-0.1506	20.944002	2.164	20.769001
176	3	8	-0.1506	19.591999	4.3099999	22.201002
177	3	9	0.0895	18.868999	3.2820001	20.198
178	3	9	0.0895	18.73	2.1719999	21.646002
179	4	5	0.1222	6.4759998	14.427	2.0869999
180	4	8	-0.1506	6.4370003	12.666	2.2839999
181	4	8	-0.1506	8.0050001	14.934	1.342
182	4	9	0.0895	5.6459999	14.795	1.434
183	4	9	0.0895	6.408	14.906	3.0940003
184	5	5	0.1222	15.621	19.459999	26.228001
185	5	8	-0.1506	15.708	20.468002	27.683001
186	5	8	-0.1506	17.216	19.343	25.458
187	5	9	0.0895	15.283001	18.419001	26.457003
188	5	9	0.0895	14.92	19.934999	25.499001
189	6	5	0.1222	2.1489999	13.635	17.541
190	6	8	-0.1506	3.7179999	13.473	18.349001
191	6	8	-0.1506	1.696	12.109001	16.757
192	6	9	0.0895	1.3329999	13.899001	18.257999
193	6	9	0.0895	2.2279999	14.419001	16.75
194	7	5	0.1222	26.952999	10.806	27.907
195	7	8	-0.1506	27.325001	9.0810003	27.753
196	7	8	-0.1506	27.906	11.752	26.747
197	7	9	0.0895	25.874002	11.023001	27.709
198	7	9	0.0895	27.226999	11.145	28.936003
199	8	5	0.1222	18.868999	25.205	12.724
200	8	8	-0.1506	20.339001	26.196001	12.721
201	8	8	-0.1506	17.43	26.233002	12.865
202	8	9	0.0895	18.763	24.607	11.785001
203	8	9	0.0895	18.893999	24.524	13.609
204	9	5	0.1222	15.751	2.527	26.414001
205	9	8	-0.1506	16.959	1.301	26.835001
206	9	8	-0.1506	16.395	3.635	25.186003
207	9	9	0.0895	14.818	2.073	25.997999
208	9	9	0.0895	15.509	3.125	27.326
209	10	5	0.1222	4.6360002	21.900999	30.084999
210	10	8	-0.1506	3.03	22.125	30.799
211	10	8	-0.1506	5.7950001	23.039	30.799
212	10	9	0.0895	5.0320001	20.868999	30.255001
213	10	9	0.0895	4.5780001	22.110003	28.989
214	11	5	0.1222	5.7810001	21.650999	22.034
215	11	8	-0.1506	4.4060001	21.299	20.973
216	11	8	-0.1506	5.2319999	22.481001	23.503
217	11	9	0.0895	6.3140006	20.721001	22.354
218	11	9	0.0895	6.4879999	22.329002	21.498001
219	12	5	0.1222	12.751001	26.167	7.862
220	12	8	-0.1506	11.455001	27.145002	8.573
221	12	8	-0.1506	14.303001	26.541002	8.6350002
222	12	9	0.0895	12.568001	25.070999	7.9899998
223	12	9	0.0895	12.837	26.414001	6.776
224	13	5	0.1222	24.837999	23.497	17.552
225	13	8	-0.1506	24.258001	25.172003	17.538
226	13	8	-0.1506	26.183002	23.318003	18.695999
227	13	9	0.0895	24.039	22.778	17.858999
228	13	9	0.0895	25.215	23.236	16.533001
229	14	5	0.1222	7.9360003	29.138	10.661
230	14	8	-0.1506	8.5810003	30.458	11.654
231	14	8	-0.1506	7.948	29.591999	8.9460001
232	14	9	0.0895	8.5389996	28.202	10.764
233	14	9	0.0895	6.8779998	28.944	10.960001
234	15	5	0.1222	29.498001	12.793001	8.3500004
235	15	8	-0.1506	28.158001	13.909	8.0360003
236	15	8	-0.1506	30.334	12.387	6.8379998
237	15	9	0.0895	30.257	13.232001	9.0439997
238	15	9	0.0895	29.087999	11.848001	8.7819996
239	16	5	0.1222	25.742001	29.791	23.514002
240	16	8	-0.1506	25.728001	30.817001	22.069
241	16	8	-0.1506	25.283001	30.732	24.947002
242	16	9	0.0895	25.025002	28.937	23.430002
243	16	9	0.0895	26.778	29.403	23.673
244	17	5	0.1222	16.354	13.608	7.2160001
245	17	8	-0.1506	15.086001	12.565001	6.5479999
246	17	8	-0.1506	17.870001	13.391	6.3190002
247	17	9	0.0895	16.082001	14.691	7.1570005
248	17	9	0.0895	16.538	13.319	8.2790003
249	18	5	0.1222	15.002001	24.165001	6.1290002
250	18	8	-0.1506	13.359001	23.784	5.585
251	18	8	-0.1506	15.170001	25.908001	6.4160004
252	18	9	0.0895	15.262001	23.642002	7.0819998
253	18	9	0.0895	15.725001	23.875999	5.3270001
254	19	5	0.1222	22.882002	1.0599999	23.629
255	19	8	-0.1506	22.957001	0.17200001	25.160999
256	19	8	-0.1506	21.535999	0.46700001	22.636002
257	19	9	0.0895	22.726	2.1559999	23.785
258	19	9	0.0895	23.830002	0.88700002	23.063
259	20	5	0.1222	18.235001	30.035999	19.982
260	20	8	-0.1506	17.811001	30.791	21.528999
261	20	8	-0.1506	17.346001	30.806	18.653999
262	20	9	0.0895	19.326	30.129002	19.754
263	20	9	0.0895	17.943001	28.958	20.014
264	21	5	0.1222	19.983999	26.784	2.1070001
265	21	8	-0.1506	20.431002	26.119001	0.52700001
266	21	8	-0.1506	20.389999	28.51	2.1900001
267	21	9	0.0895	18.888	26.688002	2.3099999
268	21	9	0.0895	20.565002	26.254999	2.901
269	22	5	0.1222	26.037003	25.165003	29.936001
270	22	8	-0.1506	27.667	25.851	29.813999
271	22	8	-0.1506	26.122	23.407	30.167999
272	22	9	0.0895	25.466002	25.589001	30.799
273	22	9	0.0895	25.489002	25.361002	28.983
274	23	5	0.1222	22.762001	1.132	6.0750003
275	23	8	-0.1506	22.692001	0.001	7.4369998
276	23	8	-0.1506	23.209	2.7540002	6.6389999
277	23	9	0.0895	23.517	0.82300001	5.3100004
278	23	9	0.0895	21.75	1.196	5.6050005
279	24	5	0.1222	21.681999	4.0700002	28.783001
280	24	8	-0.1506	20.493	3.7969999	27.497002
281	24	8	-0.1506	20.866001	4.4970002	30.299999
282	24	9	0.0895	22.302999	3.1619999	28.981001
283	24	9	0.0895	22.339001	4.9250002	28.492001
284	25	5	0.1222	16.190001	2.392	5.2570004
285	25	8	-0.1506	17.695999	1.49	5.0110002
286	25	8	-0.1506	14.79	1.3840001	4.8429999
287	25	9	0.0895	16.066	2.7200003	6.3179998
288	25	9	0.0895	16.187	3.2820001	4.5809999
289	26	5	0.1222	28.245001	9.4619999	7.2399998
290	26	8	-0.1506	27.792	10.501001	5.8769999
291	26	8	-0.1506	27.113001	9.6829996	8.5880003
292	26	9	0.0895	28.231001	8.3780003	6.9640007
293	26	9	0.0895	29.264	9.7519999	7.5929999
294	27	5	0.1222	11.765001	0.51599997	15.41
295	27	8	-0.1506	9.9969997	0.41299999	15.478
296	27	8	-0.1506	12.287001	2.2119999	15.434
297	27	9	0.0895	12.249001	0.0040000002	16.278
298	27	9	0.0895	12.118	0.060000002	14.454001
299	28	5	0.1222	4.5679998	8.6079998	2.8
300	28	8	-0.1506	4.9349999	10.124001	3.6400003
301	28	8	-0.1506	3.0039999	8.7229996	1.969
302	28	9	0.0895	5.3390002	8.3559999	2.03
303	28	9	0.0895	4.5	7.7839999	3.5520003
304	29	5	0.1222	6.8520002	29.146002	2.549
305	29	8	-0.1506	7.165	28.778999	4.2540002
306	29	8	-0.1506	8.2589998	29.945	1.8190001
307	29	9	0.0895	6.6440005	28.224001	1.9520001
308	29	9	0.0895	5.9850001	29.847	2.4820001
309	30	5	0.1222	28.59	23.145	11.753
310	30	8	-0.1506	30.063	22.576	12.557
311	30	8	-0.1506	27.388	21.843002	11.668
312	30	9	0.0895	28.118999	24.000999	12.296
313	30	9	0.0895	28.843	23.450001	10.708
314	31	5	0.1222	18.971001	25.025002	23.466999
315	31	8	-0.1506	18.381001	26.470001	24.307001
316	31	8	-0.1506	19.516001	25.440002	21.830002
317	31	9	0.0895	19.834	24.554003	23.999002
318	31	9	0.0895	18.132999	24.292	23.377001
319	32	5	0.1222	22.191	27.099001	16.518
320	32	8	-0.1506	21.910999	25.370003	16.785999
321	32	8	-0.1506	23.929003	27.455999	16.542
322	32	9	0.0895	21.792	27.441999	15.531
323	32	9	0.0895	21.709002	27.676001	17.344
324	33	5	0.1222	28.211	25.612	26.518
325	33	8	-0.1506	28.718002	27.179001	25.863001
326	33	8	-0.1506	26.506002	25.667	27.007
327	33	9	0.0895	28.318003	24.789	25.768002
328	33	9	0.0895	28.823002	25.382999	27.424
329	34	5	0.1222	5.8850002	28.871	24.847
330	34	8	-0.1506	4.2719998	28.469	25.462
331	34	8	-0.1506	5.8750005	30.472	24.082001
332	34	9	0.0895	6.652	28.893002	25.66
333	34	9	0.0895	6.1739998	28.120001	24.072001
334	35	5	0.1222	4.0219998	27.035	20.665001
335	35	8	-0.1506	2.994	28.471001	20.524002
336	35	8	-0.1506	5.6260004	27.479	21.278999
337	35	9	0.0895	3.592	26.278	21.367001
338	35	9	0.0895	4.1529999	26.582001	19.652
339	36	5	0.1222	15.459	25.629002	29.893999
340	36	8	-0.1506	14.996	27.081001	30.799
341	36	8	-0.1506	16.909	24.893	30.603001
342	36	9	0.0895	14.652	24.855001	29.900999
343	36	9	0.0895	15.698	25.919001	28.841999
344	37	5	0.1222	19.900999	5.0850005	1.2819999
345	37	8	-0.1506	19.014999	4.2389998	0.001
346	37	8	-0.1506	18.795	5.5700006	2.5820003
347	37	9	0.0895	20.694	4.4419999	1.739
348	37	9	0.0895	20.360001	6.0089998	0.85500002
349	38	5	0.1222	20.337	2.3239999	25.016001
350	38	8	-0.1506	18.598	2.6440001	25.139999
351	38	8	-0.1506	21.256001	3.835	25.148001
352	38	9	0.0895	20.697001	1.641	25.825003
353	38	9	0.0895	20.552002	1.875	24.016001
354	39	5	0.1222	3.3930001	4.2600002	11.43
355	39	8	-0.1506	2.223	2.961	11.722001
356	39	8	-0.1506	2.5760002	5.835	11.407
357	39	9	0.0895	4.1799998	4.303	12.223
358	39	9	0.0895	3.8670001	4.1030002	10.432
359	40	5	0.1222	10.257	16.943001	2.1240001
360	40	8	-0.1506	11.606001	17.445999	1.09
361	40	8	-0.1506	8.8540001	17.997999	1.868
362	40	9	0.0895	9.9320002	15.895	1.91
363	40	9	0.0895	10.568	17.035	3.1930003
364	41	5	0.1222	13.833	9.6000004	22.808001
365	41	8	-0.1506	13.438	8.0699997	22.007
366	41	8	-0.1506	15.53	9.6070004	23.326
367	41	9	0.0895	13.686	10.479001	22.132999
368	41	9	0.0895	13.194	9.7080002	23.718002
369	42	5	0.1222	20.465	18.438999	28.259001
370	42	8	-0.1506	22.007999	19.083	28.847
371	42	8	-0.1506	19.378	19.763	27.796
372	42	9	0.0895	20.597	17.784	27.363003
373	42	9	0.0895	19.976	17.863001	29.082001
374	43	5	0.1222	26.380001	30.003002	14.077
375	43	8	-0.1506	25.635002	30.77	15.49
376	43	8	-0.1506	25.766001	28.35	13.874001
377	43	9	0.0895	26.162003	30.559999	13.132
378	43	9	0.0895	27.483999	29.943001	14.237001
379	44	5	0.1222	13.811001	25.838001	23.389999
380	44	8	-0.1506	12.384	26.860001	23.642002
381	44	8	-0.1506	15.077	26.743	22.537001
382	44	9	0.0895	14.247	25.480001	24.355
383	44	9	0.0895	13.523001	24.965	22.755001
384	45	5	0.1222	25.011002	13.941001	24.504002
385	45	8	-0.1506	26.424	14.94	24.885002
386	45	8	-0.1506	25.457001	12.638	23.386
387	45	9	0.0895	24.575003	13.464001	25.417999
388	45	9	0.0895	24.240999	14.577	24.004
389	46	5	0.1222	18.075001	5.927	24.574001
390	46	8	-0.1506	16.445	5.974	23.879002
391	46	8	-0.1506	18.017	5.3430004	26.247999
392	46	9	0.0895	18.754999	5.2459998	24.004
393	46	9	0.0895	18.493999	6.9619999	24.584
394	47	5	0.1222	3.9059999	18.187	24.112
395	47	8	-0.1506	2.5079999	19.240999	24.389999
396	47	8	-0.1506	5.1739998	19.061001	23.231001
397	47	9	0.0895	4.3540001	17.820999	25.069
398	47	9	0.0895	3.586	17.319	23.485001
399	48	5	0.1222	27.257999	16.153	9.3800001
400	48	8	-0.1506	26.834	14.762	10.393
401	48	8	-0.1506	26.956001	15.789	7.6700001
402	48	9	0.0895	26.658001	17.061001	9.6409998
403	48	9	0.0895	28.347	16.370001	9.5010004
404	49	5	0.1222	10.842	28.949001	3.0700002
405	49	8	-0.1506	10.261001	30.49	3.723
406	49	8	-0.1506	12.611	28.859001	3.1760001
407	49	9	0.0895	10.428	28.073002	3.628
408	49	9	0.0895	10.557001	28.882	1.9920001
409	50	5	0.1222	6.4460001	6.197	20.377003
410	50	8	-0.1506	5.1660004	7.4219999	20.426003
411	50	8	-0.1506	7.5450001	6.3940001	21.754999
412	50	9	0.0895	6.0349998	5.158	20.421
413	50	9	0.0895	7.04	6.3309999	19.440001
414	51	5	0.1222	28.424999	2.5339999	10.524
415	51	8	-0.1506	27.024	2.0510001	11.497001
416	51	8	-0.1506	28.249001	4.2119999	9.9759998
417	51	9	0.0895	29.379999	2.4690001	11.101
418	51	9	0.0895	28.481003	1.8800001	9.6199999
419	52	5	0.1222	13.631	21.196001	4.3649998
420	52	8	-0.1506	12.144001	22.120001	4.0869999
421	52	8	-0.1506	13.256001	19.48	4.6160002
422	52	9	0.0895	14.335001	21.261999	3.4990001
423	52	9	0.0895	14.128	21.579	5.29
424	53	5	0.1222	7.3080006	22.665003	2.5999999
425	53	8	-0.1506	5.5710001	22.476002	2.8970001
426	53	8	-0.1506	7.7410002	24.384001	2.5350001
427	53	9	0.0895	7.9250002	22.194002	3.404
428	53	9	0.0895	7.5580001	22.208002	1.612
429	54	5	0.1222	0.85000002	12.049	25.514
430	54	8	-0.1506	2.527	12.611	25.403002
431	54	8	-0.1506	0.011	12.864	26.848
432	54	9	0.0895	0.27399999	12.258	24.577999
433	54	9	0.0895	0.84899998	10.952	25.724001
434	55	5	0.1222	28.352001	6.3850002	18.656
435	55	8	-0.1506	29.063999	7.9910002	18.427
436	55	8	-0.1506	29.502001	5.3070002	19.471001
437	55	9	0.0895	27.426003	6.4210005	19.281
438	55	9	0.0895	28.118	5.9470005	17.655001
439	56	5	0.1222	12.023	1.5710001	27.364002
440	56	8	-0.1506	10.509	1.307	26.481001
441	56	8	-0.1506	12.733001	3.1360002	26.921001
442	56	9	0.0895	11.867	1.5750002	28.472002
443	56	9	0.0895	12.749	0.76999998	27.084999
444	57	5	0.1222	11.303	29.127003	10.154
445	57	8	-0.1506	12.682	28.015001	10.139
446	57	8	-0.1506	11.854	30.794001	10.412001
447	57	9	0.0895	10.736	29.107	9.1899996
448	57	9	0.0895	10.625	28.853001	10.998
449	58	5	0.1222	24.215	6.9359999	6.3940001
450	58	8	-0.1506	25.392	5.7870002	5.7319999
451	58	8	-0.1506	23.797001	8.1619997	5.1810002
452	58	9	0.0895	23.264999	6.4330001	6.7030001
453	58	9	0.0895	24.671	7.4569998	7.27
454	59	5	0.1222	25.976	9.1199999	3.5910001
455	59	8	-0.1506	25.725	9.9829998	5.119
456	59	8	-0.1506	26.470001	7.4439998	3.9000001
457	59	9	0.0895	25.046001	9.0860004	2.9700003
458	59	9	0.0895	26.795002	9.6219997	3.0220003
459	60	5	0.1222	23.466	24.431999	13.094
460	60	8	-0.1506	24.01	22.816999	13.582
461	60	8	-0.1506	21.704002	24.454	12.883
462	60	9	0.0895	23.722	25.209	13.856
463	60	9	0.0895	23.935001	24.691	12.114
464	61	5	0.1222	3.5810003	8.1470003	24.379002
465	61	8	-0.1506	2.0409999	8.691	23.690002
466	61	8	-0.1506	4.3109999	6.8970003	23.353003
467	61	9	0.0895	4.3200002	8.9809999	24.468
468	61	9	0.0895	3.3889999	7.6990004	25.385
469	62	5	0.1222	4.2360001	29.021999	12.927
470	62	8	-0.1506	4.2839999	30.163	14.283
471	62	8	-0.1506	4.1939998	27.351999	13.525
472	62	9	0.0895	3.3340001	29.171	12.285
473	62	9	0.0895	5.1630001	29.146999	12.316
474	63	5	0.1222	20.434	12.875	2.915
475	63	8	-0.1506	20.027	14.593	2.77
476	63	8	-0.1506	21.488001	12.605	4.3179998
477	63	9	0.0895	19.525999	12.237	3.0510001
478	63	9	0.0895	20.99	12.555	2
479	64	5	0.1222	17.587999	22.250999	7.8769999
480	64	8	-0.1506	19.087	21.309002	7.96
481	64	8	-0.1506	17.940001	23.987	7.9840002
482	64	9	0.0895	17.035999	22.079	6.9190001
483	64	9	0.0895	16.938999	21.976002	8.7440004
484	65	5	0.1222	25.061001	20.374001	16.594999
485	65	8	-0.1506	26.118	21.275999	17.695
486	65	8	-0.1506	25.816	20.225	14.996
487	65	9	0.0895	24.853001	19.34	16.965
488	65	9	0.0895	24.103001	20.934999	16.473
489	66	5	0.1222	6.3060002	1.11	24.925001
490	66	8	-0.1506	8.0100002	1.314	25.368002
491	66	8	-0.1506	5.2610006	1.972	26.070999
492	66	9	0.0895	6.0869999	1.5110002	23.903999
493	66	9	0.0895	6.0479999	0.024	24.971001
494	67	5	0.1222	11.064	24.374001	3.1600001
495	67	8	-0.1506	10.215	25.923002	3.016
496	67	8	-0.1506	10.798	23.384001	1.7110001
497	67	9	0.0895	12.168001	24.509001	3.2750001
498	67	9	0.0895	10.655001	23.817001	4.0380001
499	68	5	0.1222	20.936001	17.792	2.954
500	68	8	-0.1506	22.167	18.847	3.6689999
501	68	8	-0.1506	19.474001	18.719	2.5670002
502	68	9	0.0895	21.290001	17.313999	2.007
503	68	9	0.0895	20.659	17.004	3.697
504	69	5	0.1222	26.479	28.220001	1.054
505	69	8	-0.1506	26.235001	29.975002	1.077
506	69	8	-0.1506	28.209999	27.836	0.98799998
507	69	9	0.0895	26.059999	27.726	1.965
508	69	9	0.0895	25.997	27.799999	0.138
509	70	5	0.1222	28.232	9.0120001	24.198999
510	70	8	-0.1506	27.312	9.2989998	22.711
511	70	8	-0.1506	27.408001	7.8130002	25.214003
512	70	9	0.0895	29.260002	8.625	23.989
513	70	9	0.0895	28.296001	9.967	24.775
514	71	5	0.1222	16.499001	25.664001	0.66399997
515	71	8	-0.1506	16.43	25.288	2.395
516	71	8	-0.1506	15.415	27.014999	0.28
517	71	9	0.0895	17.528	25.957001	0.33800003
518	71	9	0.0895	16.156	24.771002	0.086000003
519	72	5	0.1222	20.190001	21.579	24.834999
520	72	8	-0.1506	18.726999	21.134003	23.938999
521	72	8	-0.1506	21.635	21.287001	23.846001
522	72	9	0.0895	20.194	22.659	25.124001
523	72	9	0.0895	20.263002	20.940001	25.749001
524	73	5	0.1222	27.947002	3.1029999	25.889999
525	73	8	-0.1506	28.490999	2.3239999	27.386
526	73	8	-0.1506	27.069	1.9450002	24.872999
527	73	9	0.0895	27.26	3.9619999	26.09
528	73	9	0.0895	28.841	3.4549999	25.32
529	74	5	0.1222	23.586002	26.217001	19.603001
530	74	8	-0.1506	25.190001	25.468002	19.513
531	74	8	-0.1506	22.322002	24.972	19.629
532	74	9	0.0895	23.464001	26.839001	20.524002
533	74	9	0.0895	23.430002	26.848	18.694
534	75	5	0.1222	7.3930001	23.391001	12.466001
535	75	8	-0.1506	8.125	21.830002	12.054
536	75	8	-0.1506	8.5450001	24.709	12.18
537	75	9	0.0895	6.4819999	23.601999	11.853
538	75	9	0.0895	7.1300001	23.392	13.552
539	76	5	0.1222	7.7969999	7.7080007	30.197001
540	76	8	-0.1506	7.4439998	9.368	30.708
541	76	8	-0.1506	7.4040003	7.4910002	28.481003
542	76	9	0.0895	8.8769999	7.4480004	30.33
543	76	9	0.0895	7.1620007	7.0040007	30.788
544	77	5	0.1222	16.062	11.335	3.721
545	77	8	-0.1506	14.913	11.32	2.372
546	77	8	-0.1506	16.184	12.965001	4.4109998
547	77	9	0.0895	15.752	10.645	4.5450001
548	77	9	0.0895	17.070999	11.045	3.3410001
549	78	5	0.1222	28.829	2.9840002	14.629001
550	78	8	-0.1506	29.612	4.572	14.712
551	78	8	-0.1506	27.125	3.1070004	15.108
552	78	9	0.0895	28.857	2.5550003	13.596
553	78	9	0.0895	29.339001	2.2909999	15.342001
554	79	5	0.1222	26.618002	2.8699999	6.329
555	79	8	-0.1506	26.384001	2.1889999	7.9489999
556	79	8	-0.1506	25.073002	3.4389999	5.6680007
557	79	9	0.0895	27.320002	3.7400002	6.336
558	79	9	0.0895	27.009001	2.0710001	5.6540003
559	80	5	0.1222	18.607	15.58	24.583
560	80	8	-0.1506	19.360001	17.007	23.85
561	80	8	-0.1506	19.236	14.097	23.838001
562	80	9	0.0895	18.809999	15.515001	25.681
563	80	9	0.0895	17.506001	15.618	24.402
564	81	5	0.1222	4.6609998	9.6700001	6.6700001
565	81	8	-0.1506	6.3660002	9.2700005	6.9429998
566	81	8	-0.1506	4.4219999	11.427001	6.7230005
567	81	9	0.0895	4.3000002	9.3120003	5.6750007
568	81	9	0.0895	4.0469999	9.2130003	7.4840002
569	82	5	0.1222	20.211	27.663	20.056
570	82	8	-0.1506	20.938999	28.926001	21.063999
571	82	8	-0.1506	19.690001	28.336	18.499001
572	82	9	0.0895	20.929001	26.833	19.837999
573	82	9	0.0895	19.309	27.257999	20.577
574	83	5	0.1222	19.886999	14.16	27.900999
575	83	8	-0.1506	21.566999	14.61	27.554001
576	83	8	-0.1506	18.875	15.611	28.043001
577	83	9	0.0895	19.448	13.523001	27.094
578	83	9	0.0895	19.851999	13.617	28.875999
579	84	5	0.1222	11.838001	3.7909999	0.96600002
580	84	8	-0.1506	11.37	2.102	0.69800007
581	84	8	-0.1506	10.888	4.494	2.289
582	84	9	0.0895	12.918	3.8900003	1.239
583	84	9	0.0895	11.625	4.3769999	0.039000001
584	85	5	0.1222	24.181999	17.367001	14.578
585	85	8	-0.1506	22.739	18.375999	14.379
586	85	8	-0.1506	23.743	15.648001	14.564
587	85	9	0.0895	24.925001	17.530001	13.759001
588	85	9	0.0895	24.65	17.596001	15.567001
589	86	5	0.1222	21.334999	11.776	25.098
590	86	8	-0.1506	19.582001	11.932	25.306
591	86	8	-0.1506	22.038	13.324001	24.59
592	86	9	0.0895	21.844999	11.472	26.046
593	86	9	0.0895	21.540001	11.024	24.298
594	87	5	0.1222	23.715	0.889	20.082001
595	87	8	-0.1506	25.475002	0.70200002	20.171001
596	87	8	-0.1506	23.195	1.062	18.395
597	87	9	0.0895	23.177002	0.0060000001	20.510002
598	87	9	0.0895	23.421	1.816	20.631001
599	88	5	0.1222	16.569	1.349	17.445
600	88	8	-0.1506	15.467	0.28099999	16.556999
601	88	8	-0.1506	16.066999	3.0410001	17.268999
602	88	9	0.0895	16.589001	1.117	18.538
603	88	9	0.0895	17.594999	1.247	17.016001
604	89	5	0.1222	12.584	6.1849999	25.580002
605	89	8	-0.1506	12.573	4.5679998	24.854
606	89	8	-0.1506	12.289	7.421	24.342001
607	89	9	0.0895	11.794	6.2989998	26.363001
608	89	9	0.0895	13.591	6.375	26.025
609	90	5	0.1222	27.016001	6.6849999	15.208
610	90	8	-0.1506	26.955002	8.3170004	15.897001
611	90	8	-0.1506	25.978001	6.5799999	13.773001
612	90	9	0.0895	28.051003	6.3990002	14.895
613	90	9	0.0895	26.632999	5.9590001	15.966
614	91	5	0.1222	9.434	6.7600007	23.855
615	91	8	-0.1506	9.9399996	7.8969998	22.593
616	91	8	-0.1506	8.3149996	7.5469999	24.985001
617	91	9	0.0895	8.9099998	5.8680005	23.431
618	91	9	0.0895	10.334	6.4350004	24.431
619	92	5	0.1222	1.7620001	19.389	28.576
620	92	8	-0.1506	2.339	17.729	28.343
621	92	8	-0.1506	3.1200001	20.530003	28.524
622	92	9	0.0895	1.035	19.695999	27.784002
623	92	9	0.0895	1.283	19.466999	29.583
624	93	5	0.1222	2.0380001	26.476	10.836
625	93	8	-0.1506	0.884	25.138	10.700001
626	93	8	-0.1506	1.447	27.688	11.99
627	93	9	0.0895	3.04	26.132	11.195001
628	93	9	0.0895	2.1400001	26.969002	9.8389997
629	94	5	0.1222	24.167002	3.6559999	15.118
630	94	8	-0.1506	25.179003	3.9990001	13.704
631	94	8	-0.1506	23.071001	5.0130005	15.440001
632	94	9	0.0895	23.537003	2.743	14.973001
633	94	9	0.0895	24.826	3.5250001	16.011
634	95	5	0.1222	28.73	9.6309996	12.828001
635	95	8	-0.1506	27.584999	8.3760004	12.322001
636	95	8	-0.1506	30.004999	8.9320002	13.845
637	95	9	0.0895	29.229	10.121001	11.955
638	95	9	0.0895	28.186001	10.396	13.433
639	96	5	0.1222	0.69	25.193003	25.803001
640	96	8	-0.1506	2.1789999	24.242001	25.659
641	96	8	-0.1506	1.0650001	26.926001	25.862
642	96	9	0.0895	0.001	25.028	24.937
643	96	9	0.0895	0.175	24.918001	26.754999
644	97	5	0.1222	19.580999	6.5700002	7.0090003
645	97	8	-0.1506	20.009001	8.0129995	6.0720005